                         Program Version 6.0.0  -   RELEASE  -
|  1> # ORCA Input File generated by Ophysia
|  2> ! B3LYP D4 def2-SVP OPT RIJCOSX FREQ def2/J TIGHTOPT
|  3> * xyz 1 1
|  4> C          1.10664        0.12229       -0.06163
|  5> C          2.57553       -0.08270       -0.01930
|  6> H          0.58040        0.09634       -1.00860
|  7> H          0.58003        0.46368        0.82164
|  8> H          2.88007       -0.80998       -0.77753
|  9> H          2.87850       -0.46040        0.96074
| 10> H          3.09456        0.86076       -0.20885
| 11> **                         ****END OF INPUT****
 Total Charge           Charge          ....    1
 Multiplicity           Mult            ....    1
 Number of Electrons    NEL             ....   16
Dispersion correction           -0.002543589
FINAL SINGLE POINT ENERGY       -78.730368163374
Dispersion correction             ... done (  0.0 sec)
Dispersion correction           -0.002546737
FINAL SINGLE POINT ENERGY       -78.735959295932
Dispersion correction             ... done (  0.0 sec)
Dispersion correction           -0.002553073
FINAL SINGLE POINT ENERGY       -78.737790556193
Dispersion correction             ... done (  0.0 sec)
FINAL SINGLE POINT ENERGY       -78.739347318975
FINAL SINGLE POINT ENERGY       -78.740387157544
FINAL SINGLE POINT ENERGY       -78.740943086761
FINAL SINGLE POINT ENERGY       -78.742065841475
FINAL SINGLE POINT ENERGY       -78.743469136976
FINAL SINGLE POINT ENERGY       -78.743990923765
FINAL SINGLE POINT ENERGY       -78.744267203992
FINAL SINGLE POINT ENERGY       -78.744985094364
FINAL SINGLE POINT ENERGY       -78.745167197009
FINAL SINGLE POINT ENERGY       -78.745298996164
FINAL SINGLE POINT ENERGY       -78.745354151807
FINAL SINGLE POINT ENERGY       -78.745364254545
FINAL SINGLE POINT ENERGY       -78.745366385457
Dispersion correction             ... done (  0.0 sec)
Dispersion correction           -0.002444456
FINAL SINGLE POINT ENERGY       -78.745367649200
Dispersion correction             ... done (  0.0 sec)
Dispersion correction           -0.002444462
FINAL SINGLE POINT ENERGY       -78.745367850756
Dispersion correction             ... done (  0.0 sec)
                    ***********************HURRAY********************

CARTESIAN COORDINATES (ANGSTROEM)
---------------------------------
  C      1.264795    0.180831   -0.074169
  C      2.513712   -0.403442    0.045670
  H      0.754840    0.224033   -1.046200
  H      0.751178    0.595707    0.803822
  H      3.019238   -0.834846   -0.829037
  H      3.015522   -0.463122    1.021042
  H      2.376446    0.890829   -0.214657

 Multiplicity           Mult            ....    1
 Number of Electrons    NEL             ....   16
 Basis Dimension        Dim             ....   53

ORBITAL ENERGIES
----------------

  NO   OCC          E(Eh)            E(eV)
   0   2.0000     -10.524395      -286.3834
   1   2.0000     -10.523868      -286.3690
   2   2.0000      -1.109712       -30.1968
   3   2.0000      -0.866057       -23.5666
   4   2.0000      -0.762416       -20.7464
   5   2.0000      -0.743814       -20.2402
   6   2.0000      -0.674637       -18.3578
   7   2.0000      -0.646938       -17.6041
   8   0.0000      -0.321096        -8.7375
   9   0.0000      -0.203716        -5.5434
  10   0.0000      -0.145274        -3.9531
  11   0.0000      -0.129006        -3.5104
  12   0.0000      -0.108611        -2.9555

MULLIKEN ATOMIC CHARGES
-----------------------
   0 C :    0.063089
   1 C :    0.063728
   2 H :    0.173642
   3 H :    0.173716
   4 H :    0.173626
   5 H :    0.173657
   6 H :    0.178543
Sum of atomic charges:    1.0000000

LOEWDIN ATOMIC CHARGES
----------------------
   0 C :    0.193999
   1 C :    0.194637
   2 H :    0.097784
   3 H :    0.097793
   4 H :    0.097771
   5 H :    0.097787
   6 H :    0.220228

  Mayer bond orders larger than 0.100000
B(  0-C ,  1-C ) :   1.3574 B(  0-C ,  2-H ) :   0.9449 B(  0-C ,  3-H ) :   0.9449
B(  0-C ,  6-H ) :   0.4853 B(  1-C ,  4-H ) :   0.9449 B(  1-C ,  5-H ) :   0.9448
B(  1-C ,  6-H ) :   0.4846

Dispersion correction           -0.002444319
FINAL SINGLE POINT ENERGY       -78.745367880603

DIPOLE MOMENT
-------------

Method             : SCF
Type of density    : Electron Density
Multiplicity       :   1
Irrep              :   0
Energy             :   -78.7429235614662701 Eh
Relativity type    :
Basis              : AO
                                X                 Y                 Z
Electronic contribution:     -0.204049032      -0.421718120       0.084368664
Nuclear contribution   :      0.365215025       0.751536384      -0.150272803
                        -----------------------------------------
Total Dipole Moment    :      0.161165993       0.329818264      -0.065904139
                        -----------------------------------------
Magnitude (a.u.)       :      0.372958336
Magnitude (Debye)      :      0.947984752

VIBRATIONAL FREQUENCIES
-----------------------

Scaling factor for frequencies =  1.000000000  (already applied!)

     0:       0.00 cm**-1
     1:       0.00 cm**-1
     2:       0.00 cm**-1
     3:       0.00 cm**-1
     4:       0.00 cm**-1
     5:       0.00 cm**-1
     6:     498.78 cm**-1
     7:     825.59 cm**-1
     8:    1051.00 cm**-1
     9:    1059.53 cm**-1
    10:    1117.38 cm**-1
    11:    1220.25 cm**-1
    12:    1239.54 cm**-1
    13:    1340.60 cm**-1
    14:    1439.11 cm**-1
    15:    1569.24 cm**-1
    16:    2122.79 cm**-1
    17:    3113.98 cm**-1
    18:    3116.14 cm**-1
    19:    3226.29 cm**-1
    20:    3239.72 cm**-1

IR SPECTRUM
-----------

 Mode   freq       eps      Int      T**2         TX        TY        TZ
       cm**-1   L/(mol*cm) km/mol    a.u.
----------------------------------------------------------------------------
  6:    498.78   0.027641  139.69  0.017294  (-0.118606  0.055645 -0.011407)
  7:    825.59   0.000088    0.44  0.000033  ( 0.000001 -0.001117 -0.005645)
  8:   1051.00   0.004447   22.47  0.001320  ( 0.000064 -0.007181 -0.035619)
  9:   1059.53   0.000009    0.05  0.000003  ( 0.000035 -0.000296 -0.001637)
 10:   1117.38   0.009167   46.33  0.002560  ( 0.021839  0.044756 -0.008952)
 11:   1220.25   0.000000    0.00  0.000000  ( 0.000001 -0.000008 -0.000031)
 12:   1239.54   0.000200    1.01  0.000050  ( 0.006432 -0.002946  0.000620)
 13:   1340.60   0.000967    4.89  0.000225  ( 0.006475  0.013274 -0.002654)
 14:   1439.11   0.004626   23.38  0.001003  (-0.028602  0.013329 -0.002739)
 15:   1569.24   0.002247   11.35  0.000447  (-0.009063 -0.018724  0.003749)
 16:   2122.79   0.009316   47.08  0.001369  (-0.015858 -0.032787  0.006560)
 17:   3113.98   0.007251   36.64  0.000727  (-0.024341  0.011364 -0.002234)
 18:   3116.14   0.000020    0.10  0.000002  ( 0.000050  0.001396 -0.000273)
 19:   3226.29   0.000001    0.00  0.000000  ( 0.000007  0.000046  0.000243)
 20:   3239.72   0.015193   76.78  0.001463  (-0.000020  0.007486  0.037515)

--------------------------
THERMOCHEMISTRY AT 298.15K
--------------------------

Temperature         ...   298.15 K
Pressure            ...     1.00 atm
Total Mass          ...    29.06 AMU
Quasi RRHO          ...     True
Cut-Off Frequency   ...     1.00 cm^-1

Throughout the following assumptions are being made:
  (1) The electronic state is orbitally nondegenerate
  (2) There are no thermally accessible electronically excited states
  (3) Hindered rotations indicated by low frequency modes are not
      treated as such but are treated as vibrations and this may
      cause some error
  (4) All equations used are the standard statistical mechanics
      equations for an ideal gas
  (5) All vibrations are strictly harmonic

freq.     498.78  E(vib)   ...       0.14
freq.     825.59  E(vib)   ...       0.04
freq.    1051.00  E(vib)   ...       0.02
freq.    1059.53  E(vib)   ...       0.02
freq.    1117.38  E(vib)   ...       0.01
freq.    1220.25  E(vib)   ...       0.01
freq.    1239.54  E(vib)   ...       0.01
freq.    1340.60  E(vib)   ...       0.01
freq.    1439.11  E(vib)   ...       0.00
freq.    1569.24  E(vib)   ...       0.00
freq.    2122.79  E(vib)   ...       0.00
freq.    3113.98  E(vib)   ...       0.00
freq.    3116.14  E(vib)   ...       0.00
freq.    3226.29  E(vib)   ...       0.00
freq.    3239.72  E(vib)   ...       0.00

------------
INNER ENERGY
------------

The inner energy is: U= E(el) + E(ZPE) + E(vib) + E(rot) + E(trans)
    E(el)   - is the total energy from the electronic structure calculation
              = E(kin-el) + E(nuc-el) + E(el-el) + E(nuc-nuc)
    E(ZPE)  - the the zero temperature vibrational energy from the frequency calculation
    E(vib)  - the the finite temperature correction to E(ZPE) due to population
              of excited vibrational states
    E(rot)  - is the rotational thermal energy
    E(trans)- is the translational thermal energy

Summary of contributions to the inner energy U:
Electronic energy                ...    -78.74536788 Eh
Zero point energy                ...      0.05964224 Eh      37.43 kcal/mol
Thermal vibrational correction   ...      0.00042871 Eh       0.27 kcal/mol
Thermal rotational correction    ...      0.00141627 Eh       0.89 kcal/mol
Thermal translational correction ...      0.00141627 Eh       0.89 kcal/mol
-----------------------------------------------------------------------
Total thermal energy                    -78.68246439 Eh

Summary of corrections to the electronic energy:
(perhaps to be used in another calculation)
Total thermal correction                  0.00326125 Eh       2.05 kcal/mol
Non-thermal (ZPE) correction              0.05964224 Eh      37.43 kcal/mol
-----------------------------------------------------------------------
Total correction                          0.06290349 Eh      39.47 kcal/mol

--------
ENTHALPY
--------

The enthalpy is H = U + kB*T
                kB is Boltzmann's constant
Total thermal energy              ...    -78.68246439 Eh
Thermal Enthalpy correction       ...      0.00094421 Eh       0.59 kcal/mol
-----------------------------------------------------------------------
Total Enthalpy                    ...    -78.68152018 Eh

Note: Rotational entropy computed according to Herzberg
Infrared and Raman Spectra, Chapter V,1, Van Nostrand Reinhold, 1945
Point Group:  Cs, Symmetry Number:   1
Rotational constants in cm-1:     3.483096     0.882585     0.786301

Vibrational entropy computed according to the QRRHO of S. Grimme
Chem.Eur.J. 2012 18 9955 using a reference frequency of 100.0 cm-1

-------
ENTROPY
-------

The entropy contributions are T*S = T*(S(el)+S(vib)+S(rot)+S(trans))
     S(el)   - electronic entropy
     S(vib)  - vibrational entropy
     S(rot)  - rotational entropy
     S(trans)- translational entropy
The entropies will be listed as multiplied by the temperature to get
units of energy

Electronic entropy                ...      0.00000000 Eh      0.00 kcal/mol
Vibrational entropy               ...      0.00056001 Eh      0.35 kcal/mol
Rotational entropy                ...      0.00909414 Eh      5.71 kcal/mol
Translational entropy             ...      0.01712110 Eh     10.74 kcal/mol
-----------------------------------------------------------------------
Final entropy term                ...      0.02677525 Eh     16.80 kcal/mol

In case the symmetry of your molecule has not been determined correctly
or in case you have a reason to use a different symmetry number we print
out the resulting rotational entropy values for sn=1,12:

 non-linear molecules -----------------------------------
|  sn= 1 | S(rot)=       0.00909414 Eh      5.71 kcal/mol|
|  sn= 2 | S(rot)=       0.00843968 Eh      5.30 kcal/mol|
|  sn= 3 | S(rot)=       0.00805685 Eh      5.06 kcal/mol|
|  sn= 4 | S(rot)=       0.00778523 Eh      4.89 kcal/mol|
|  sn= 5 | S(rot)=       0.00757454 Eh      4.75 kcal/mol|
|  sn= 6 | S(rot)=       0.00740240 Eh      4.65 kcal/mol|
|  sn= 7 | S(rot)=       0.00725685 Eh      4.55 kcal/mol|
|  sn= 8 | S(rot)=       0.00713077 Eh      4.47 kcal/mol|
|  sn= 9 | S(rot)=       0.00701956 Eh      4.40 kcal/mol|
|  sn=10 | S(rot)=       0.00692008 Eh      4.34 kcal/mol|
|  sn=11 | S(rot)=       0.00683009 Eh      4.29 kcal/mol|
|  sn=12 | S(rot)=       0.00674794 Eh      4.23 kcal/mol|
 linear molecules ---------------------------------------
|  Dinfh | S(rot)=       0.00555280 Eh      3.48 kcal/mol|
|  Cinfv | S(rot)=       0.00620726 Eh      3.90 kcal/mol|
 --------------------------------------------------------

-------------------
GIBBS FREE ENERGY
-------------------

The Gibbs free energy is G = H - T*S

Total enthalpy                    ...    -78.68152018 Eh
Total entropy correction          ...     -0.02677525 Eh    -16.80 kcal/mol
-----------------------------------------------------------------------
Final Gibbs free energy         ...    -78.70829543 Eh

For completeness - the Gibbs free energy minus the electronic energy
G-E(el)                           ...      0.03707245 Eh     23.26 kcal/mol

                             ****ORCA TERMINATED NORMALLY****
TOTAL RUN TIME: 0 days 0 hours 1 minutes 47 seconds 892 msec
