                         Program Version 6.0.0  -   RELEASE  -
|  1> # ORCA Input File generated by Ophysia
|  2> ! B3LYP D4 def2-SVP OPT RIJCOSX FREQ def2/J TIGHTOPT
|  3> * xyz 0 1
|  4> C          1.05741       -0.07822       -0.04815
|  5> O          2.47314       -0.06815       -0.04453
|  6> H          0.69590       -0.86208        0.62193
|  7> H          0.69590       -0.25678       -1.06381
|  8> H          0.69433        0.89165        0.30010
|  9> H          2.76605       -0.94074       -0.35786
| 10> **                         ****END OF INPUT****
 Total Charge           Charge          ....    0
 Multiplicity           Mult            ....    1
 Number of Electrons    NEL             ....   18
Dispersion correction           -0.002439959
FINAL SINGLE POINT ENERGY      -115.566704816678
Dispersion correction             ... done (  0.0 sec)
Dispersion correction           -0.002439975
FINAL SINGLE POINT ENERGY      -115.567906612945
Dispersion correction             ... done (  0.0 sec)
Dispersion correction           -0.002440741
FINAL SINGLE POINT ENERGY      -115.568150844437
Dispersion correction             ... done (  0.0 sec)
FINAL SINGLE POINT ENERGY      -115.568187300483
Dispersion correction             ... done (  0.0 sec)
Dispersion correction           -0.002441570
FINAL SINGLE POINT ENERGY      -115.568193180161
Dispersion correction             ... done (  0.0 sec)
Dispersion correction           -0.002441624
FINAL SINGLE POINT ENERGY      -115.568193850148
Dispersion correction             ... done (  0.0 sec)
                    ***********************HURRAY********************

CARTESIAN COORDINATES (ANGSTROEM)
---------------------------------
  C      1.076458   -0.093981   -0.053639
  O      2.483372   -0.065490   -0.042951
  H      0.648642   -0.862697    0.622476
  H      0.649263   -0.257382   -1.064521
  H      0.720437    0.887188    0.298272
  H      2.804557   -0.921958   -0.351956

 Multiplicity           Mult            ....    1
 Number of Electrons    NEL             ....   18
 Basis Dimension        Dim             ....   48

ORBITAL ENERGIES
----------------

  NO   OCC          E(Eh)            E(eV)
   0   2.0000     -19.120473      -520.2945
   1   2.0000     -10.225117      -278.2396
   2   2.0000      -0.997844       -27.1527
   3   2.0000      -0.666514       -18.1368
   4   2.0000      -0.501341       -13.6422
   5   2.0000      -0.431056       -11.7296
   6   2.0000      -0.418448       -11.3865
   7   2.0000      -0.324750        -8.8369
   8   2.0000      -0.264082        -7.1860
   9   0.0000       0.055015         1.4970
  10   0.0000       0.094981         2.5846
  11   0.0000       0.136600         3.7171
  12   0.0000       0.138262         3.7623
  13   0.0000       0.201483         5.4826

MULLIKEN ATOMIC CHARGES
-----------------------
   0 C :    0.150406
   1 O :   -0.329141
   2 H :   -0.001852
   3 H :   -0.001966
   4 H :    0.019924
   5 H :    0.162628
Sum of atomic charges:    0.0000000

LOEWDIN ATOMIC CHARGES
----------------------
   0 C :    0.058320
   1 O :   -0.153641
   2 H :    0.000360
   3 H :    0.000359
   4 H :    0.019525
   5 H :    0.075075

  Mayer bond orders larger than 0.100000
B(  0-C ,  1-O ) :   1.0469 B(  0-C ,  2-H ) :   0.9686 B(  0-C ,  3-H ) :   0.9687
B(  0-C ,  4-H ) :   0.9813 B(  1-O ,  5-H ) :   0.9864

Dispersion correction           -0.002441622
FINAL SINGLE POINT ENERGY      -115.568193880583

DIPOLE MOMENT
-------------

Method             : SCF
Type of density    : Electron Density
Multiplicity       :   1
Irrep              :   0
Energy             :  -115.5657522585297698 Eh
Relativity type    :
Basis              : AO
                                X                 Y                 Z
Electronic contribution:      1.897690357       0.165248449       0.060226287
Nuclear contribution   :     -2.202006158      -0.691625210      -0.250411919
                        -----------------------------------------
Total Dipole Moment    :     -0.304315801      -0.526376761      -0.190185632
                        -----------------------------------------
Magnitude (a.u.)       :      0.637064499
Magnitude (Debye)      :      1.619289269

VIBRATIONAL FREQUENCIES
-----------------------

Scaling factor for frequencies =  1.000000000  (already applied!)

     0:       0.00 cm**-1
     1:       0.00 cm**-1
     2:       0.00 cm**-1
     3:       0.00 cm**-1
     4:       0.00 cm**-1
     5:       0.00 cm**-1
     6:     331.62 cm**-1
     7:    1069.98 cm**-1
     8:    1106.95 cm**-1
     9:    1170.81 cm**-1
    10:    1363.93 cm**-1
    11:    1467.54 cm**-1
    12:    1473.81 cm**-1
    13:    1493.15 cm**-1
    14:    2959.11 cm**-1
    15:    3009.05 cm**-1
    16:    3102.36 cm**-1
    17:    3818.82 cm**-1

IR SPECTRUM
-----------

 Mode   freq       eps      Int      T**2         TX        TY        TZ
       cm**-1   L/(mol*cm) km/mol    a.u.
----------------------------------------------------------------------------
  6:    331.62   0.024520  123.91  0.023074  (-0.000123 -0.051480  0.142911)
  7:   1069.98   0.017739   89.65  0.005174  (-0.071678 -0.005617 -0.002068)
  8:   1106.95   0.007715   38.99  0.002175  ( 0.046627  0.000857  0.000308)
  9:   1170.81   0.000160    0.81  0.000043  (-0.000036 -0.002215  0.006150)
 10:   1363.93   0.005555   28.07  0.001271  ( 0.035304  0.004653  0.001723)
 11:   1467.54   0.000332    1.68  0.000071  (-0.000109 -0.002860  0.007896)
 12:   1473.81   0.001159    5.86  0.000245  (-0.015071 -0.004006 -0.001500)
 13:   1493.15   0.001529    7.73  0.000319  (-0.015694  0.008036  0.002932)
 14:   2959.11   0.013371   67.57  0.001410  ( 0.035236  0.012242  0.004316)
 15:   3009.05   0.016425   83.01  0.001703  (-0.000039  0.013965 -0.038838)
 16:   3102.36   0.006112   30.89  0.000615  ( 0.004728 -0.022894 -0.008264)
 17:   3818.82   0.005171   26.13  0.000423  (-0.011663  0.015924  0.005746)

--------------------------
THERMOCHEMISTRY AT 298.15K
--------------------------

Temperature         ...   298.15 K
Pressure            ...     1.00 atm
Total Mass          ...    32.04 AMU
Quasi RRHO          ...     True
Cut-Off Frequency   ...     1.00 cm^-1

Throughout the following assumptions are being made:
  (1) The electronic state is orbitally nondegenerate
  (2) There are no thermally accessible electronically excited states
  (3) Hindered rotations indicated by low frequency modes are not
      treated as such but are treated as vibrations and this may
      cause some error
  (4) All equations used are the standard statistical mechanics
      equations for an ideal gas
  (5) All vibrations are strictly harmonic

freq.     331.62  E(vib)   ...       0.24
freq.    1069.98  E(vib)   ...       0.02
freq.    1106.95  E(vib)   ...       0.02
freq.    1170.81  E(vib)   ...       0.01
freq.    1363.93  E(vib)   ...       0.01
freq.    1467.54  E(vib)   ...       0.00
freq.    1473.81  E(vib)   ...       0.00
freq.    1493.15  E(vib)   ...       0.00
freq.    2959.11  E(vib)   ...       0.00
freq.    3009.05  E(vib)   ...       0.00
freq.    3102.36  E(vib)   ...       0.00
freq.    3818.82  E(vib)   ...       0.00

------------
INNER ENERGY
------------

The inner energy is: U= E(el) + E(ZPE) + E(vib) + E(rot) + E(trans)
    E(el)   - is the total energy from the electronic structure calculation
              = E(kin-el) + E(nuc-el) + E(el-el) + E(nuc-nuc)
    E(ZPE)  - the the zero temperature vibrational energy from the frequency calculation
    E(vib)  - the the finite temperature correction to E(ZPE) due to population
              of excited vibrational states
    E(rot)  - is the rotational thermal energy
    E(trans)- is the translational thermal energy

Summary of contributions to the inner energy U:
Electronic energy                ...   -115.56819388 Eh
Zero point energy                ...      0.05095609 Eh      31.98 kcal/mol
Thermal vibrational correction   ...      0.00047808 Eh       0.30 kcal/mol
Thermal rotational correction    ...      0.00141627 Eh       0.89 kcal/mol
Thermal translational correction ...      0.00141627 Eh       0.89 kcal/mol
-----------------------------------------------------------------------
Total thermal energy                   -115.51392718 Eh

Summary of corrections to the electronic energy:
(perhaps to be used in another calculation)
Total thermal correction                  0.00331062 Eh       2.08 kcal/mol
Non-thermal (ZPE) correction              0.05095609 Eh      31.98 kcal/mol
-----------------------------------------------------------------------
Total correction                          0.05426671 Eh      34.05 kcal/mol

--------
ENTHALPY
--------

The enthalpy is H = U + kB*T
                kB is Boltzmann's constant
Total thermal energy              ...   -115.51392718 Eh
Thermal Enthalpy correction       ...      0.00094421 Eh       0.59 kcal/mol
-----------------------------------------------------------------------
Total Enthalpy                    ...   -115.51298297 Eh

Note: Only C1 symmetry has been detected, increase convergence thresholds
      if your molecule has a higher symmetry. Symmetry factor of 1.0 is
      used for the rotational entropy correction.

Note: Rotational entropy computed according to Herzberg
Infrared and Raman Spectra, Chapter V,1, Van Nostrand Reinhold, 1945
Point Group:  C1, Symmetry Number:   1
Rotational constants in cm-1:     4.233339     0.832106     0.802628

Vibrational entropy computed according to the QRRHO of S. Grimme
Chem.Eur.J. 2012 18 9955 using a reference frequency of 100.0 cm-1

-------
ENTROPY
-------

The entropy contributions are T*S = T*(S(el)+S(vib)+S(rot)+S(trans))
     S(el)   - electronic entropy
     S(vib)  - vibrational entropy
     S(rot)  - rotational entropy
     S(trans)- translational entropy
The entropies will be listed as multiplied by the temperature to get
units of energy

Electronic entropy                ...      0.00000000 Eh      0.00 kcal/mol
Vibrational entropy               ...      0.00070943 Eh      0.45 kcal/mol
Rotational entropy                ...      0.00902015 Eh      5.66 kcal/mol
Translational entropy             ...      0.01725935 Eh     10.83 kcal/mol
-----------------------------------------------------------------------
Final entropy term                ...      0.02698893 Eh     16.94 kcal/mol

In case the symmetry of your molecule has not been determined correctly
or in case you have a reason to use a different symmetry number we print
out the resulting rotational entropy values for sn=1,12:

 non-linear molecules -----------------------------------
|  sn= 1 | S(rot)=       0.00902015 Eh      5.66 kcal/mol|
|  sn= 2 | S(rot)=       0.00836569 Eh      5.25 kcal/mol|
|  sn= 3 | S(rot)=       0.00798286 Eh      5.01 kcal/mol|
|  sn= 4 | S(rot)=       0.00771124 Eh      4.84 kcal/mol|
|  sn= 5 | S(rot)=       0.00750055 Eh      4.71 kcal/mol|
|  sn= 6 | S(rot)=       0.00732841 Eh      4.60 kcal/mol|
|  sn= 7 | S(rot)=       0.00718286 Eh      4.51 kcal/mol|
|  sn= 8 | S(rot)=       0.00705678 Eh      4.43 kcal/mol|
|  sn= 9 | S(rot)=       0.00694557 Eh      4.36 kcal/mol|
|  sn=10 | S(rot)=       0.00684609 Eh      4.30 kcal/mol|
|  sn=11 | S(rot)=       0.00675610 Eh      4.24 kcal/mol|
|  sn=12 | S(rot)=       0.00667395 Eh      4.19 kcal/mol|
 linear molecules ---------------------------------------
|  Dinfh | S(rot)=       0.00553340 Eh      3.47 kcal/mol|
|  Cinfv | S(rot)=       0.00618785 Eh      3.88 kcal/mol|
 --------------------------------------------------------

-------------------
GIBBS FREE ENERGY
-------------------

The Gibbs free energy is G = H - T*S

Total enthalpy                    ...   -115.51298297 Eh
Total entropy correction          ...     -0.02698893 Eh    -16.94 kcal/mol
-----------------------------------------------------------------------
Final Gibbs free energy         ...   -115.53997189 Eh

For completeness - the Gibbs free energy minus the electronic energy
G-E(el)                           ...      0.02822199 Eh     17.71 kcal/mol

                             ****ORCA TERMINATED NORMALLY****
TOTAL RUN TIME: 0 days 0 hours 0 minutes 39 seconds 971 msec
