                         Program Version 6.0.0  -   RELEASE  -
|  1> # ORCA Input File generated by Ophysia
|  2> ! B3LYP D4 def2-SVP OPT RIJCOSX FREQ def2/J TIGHTOPT
|  3> * xyz 0 1
|  4> O          1.01160        0.10148        0.01245
|  5> H          1.97948        0.07915        0.05316
|  6> H          0.73275       -0.34466        0.82619
|  7> **                         ****END OF INPUT****
 Total Charge           Charge          ....    0
 Multiplicity           Mult            ....    1
 Number of Electrons    NEL             ....   10
Dispersion correction           -0.000312160
FINAL SINGLE POINT ENERGY       -76.321551682898
Dispersion correction             ... done (  0.0 sec)
Dispersion correction           -0.000311815
FINAL SINGLE POINT ENERGY       -76.321578801120
Dispersion correction             ... done (  0.0 sec)
Dispersion correction           -0.000311971
FINAL SINGLE POINT ENERGY       -76.321582311859
Dispersion correction             ... done (  0.0 sec)
Dispersion correction           -0.000312112
FINAL SINGLE POINT ENERGY       -76.321582979273
Dispersion correction             ... done (  0.0 sec)
                    ***********************HURRAY********************

CARTESIAN COORDINATES (ANGSTROEM)
---------------------------------
  O      1.009784    0.102718    0.010192
  H      1.975248    0.076784    0.057475
  H      0.738799   -0.343532    0.824133

 Multiplicity           Mult            ....    1
 Number of Electrons    NEL             ....   10
 Basis Dimension        Dim             ....   24

ORBITAL ENERGIES
----------------

  NO   OCC          E(Eh)            E(eV)
   0   2.0000     -19.116175      -520.1776
   1   2.0000      -0.976127       -26.5618
   2   2.0000      -0.507994       -13.8232
   3   2.0000      -0.364401        -9.9159
   4   2.0000      -0.288118        -7.8401
   5   0.0000       0.047699         1.2980
   6   0.0000       0.126619         3.4455
   7   0.0000       0.558264        15.1911
   8   0.0000       0.623815        16.9749
   9   0.0000       0.920662        25.0525

MULLIKEN ATOMIC CHARGES
-----------------------
   0 O :   -0.293710
   1 H :    0.146872
   2 H :    0.146838
Sum of atomic charges:    0.0000000

LOEWDIN ATOMIC CHARGES
----------------------
   0 O :   -0.150183
   1 H :    0.075088
   2 H :    0.075095

  Mayer bond orders larger than 0.100000
B(  0-O ,  1-H ) :   1.0081 B(  0-O ,  2-H ) :   1.0081

Dispersion correction           -0.000312116
FINAL SINGLE POINT ENERGY       -76.321582981965

DIPOLE MOMENT
-------------

Method             : SCF
Type of density    : Electron Density
Multiplicity       :   1
Irrep              :   0
Energy             :   -76.3212708658554959 Eh
Relativity type    :
Basis              : AO
                                X                 Y                 Z
Electronic contribution:     -0.122853763       0.083546762      -0.152340004
Nuclear contribution   :      0.578057380      -0.393026744       0.716847826
                        -----------------------------------------
Total Dipole Moment    :      0.455203617      -0.309479981       0.564507822
                        -----------------------------------------
Magnitude (a.u.)       :      0.788452454
Magnitude (Debye)      :      2.004086872

VIBRATIONAL FREQUENCIES
-----------------------

Scaling factor for frequencies =  1.000000000  (already applied!)

     0:       0.00 cm**-1
     1:       0.00 cm**-1
     2:       0.00 cm**-1
     3:       0.00 cm**-1
     4:       0.00 cm**-1
     5:       0.00 cm**-1
     6:    1637.74 cm**-1
     7:    3786.95 cm**-1
     8:    3881.64 cm**-1

IR SPECTRUM
-----------

 Mode   freq       eps      Int      T**2         TX        TY        TZ
       cm**-1   L/(mol*cm) km/mol    a.u.
----------------------------------------------------------------------------
  6:   1637.74   0.010965   55.41  0.002089  ( 0.026418 -0.017941  0.032703)
  7:   3786.95   0.000927    4.68  0.000076  ( 0.005035 -0.003425  0.006270)
  8:   3881.64   0.005263   26.60  0.000423  ( 0.016797  0.005710 -0.010412)

--------------------------
THERMOCHEMISTRY AT 298.15K
--------------------------

Temperature         ...   298.15 K
Pressure            ...     1.00 atm
Total Mass          ...    18.02 AMU
Quasi RRHO          ...     True
Cut-Off Frequency   ...     1.00 cm^-1

Throughout the following assumptions are being made:
  (1) The electronic state is orbitally nondegenerate
  (2) There are no thermally accessible electronically excited states
  (3) Hindered rotations indicated by low frequency modes are not
      treated as such but are treated as vibrations and this may
      cause some error
  (4) All equations used are the standard statistical mechanics
      equations for an ideal gas
  (5) All vibrations are strictly harmonic

freq.    1637.74  E(vib)   ...       0.00
freq.    3786.95  E(vib)   ...       0.00
freq.    3881.64  E(vib)   ...       0.00

------------
INNER ENERGY
------------

The inner energy is: U= E(el) + E(ZPE) + E(vib) + E(rot) + E(trans)
    E(el)   - is the total energy from the electronic structure calculation
              = E(kin-el) + E(nuc-el) + E(el-el) + E(nuc-nuc)
    E(ZPE)  - the the zero temperature vibrational energy from the frequency calculation
    E(vib)  - the the finite temperature correction to E(ZPE) due to population
              of excited vibrational states
    E(rot)  - is the rotational thermal energy
    E(trans)- is the translational thermal energy

Summary of contributions to the inner energy U:
Electronic energy                ...    -76.32158298 Eh
Zero point energy                ...      0.02120137 Eh      13.30 kcal/mol
Thermal vibrational correction   ...      0.00000276 Eh       0.00 kcal/mol
Thermal rotational correction    ...      0.00141627 Eh       0.89 kcal/mol
Thermal translational correction ...      0.00141627 Eh       0.89 kcal/mol
-----------------------------------------------------------------------
Total thermal energy                    -76.29754631 Eh

Summary of corrections to the electronic energy:
(perhaps to be used in another calculation)
Total thermal correction                  0.00283530 Eh       1.78 kcal/mol
Non-thermal (ZPE) correction              0.02120137 Eh      13.30 kcal/mol
-----------------------------------------------------------------------
Total correction                          0.02403667 Eh      15.08 kcal/mol

--------
ENTHALPY
--------

The enthalpy is H = U + kB*T
                kB is Boltzmann's constant
Total thermal energy              ...    -76.29754631 Eh
Thermal Enthalpy correction       ...      0.00094421 Eh       0.59 kcal/mol
-----------------------------------------------------------------------
Total Enthalpy                    ...    -76.29660210 Eh

Note: Rotational entropy computed according to Herzberg
Infrared and Raman Spectra, Chapter V,1, Van Nostrand Reinhold, 1945
Point Group:  C2v, Symmetry Number:   2
Rotational constants in cm-1:    26.028570    14.585381     9.347443

Vibrational entropy computed according to the QRRHO of S. Grimme
Chem.Eur.J. 2012 18 9955 using a reference frequency of 100.0 cm-1

-------
ENTROPY
-------

The entropy contributions are T*S = T*(S(el)+S(vib)+S(rot)+S(trans))
     S(el)   - electronic entropy
     S(vib)  - vibrational entropy
     S(rot)  - rotational entropy
     S(trans)- translational entropy
The entropies will be listed as multiplied by the temperature to get
units of energy

Electronic entropy                ...      0.00000000 Eh      0.00 kcal/mol
Vibrational entropy               ...      0.00000311 Eh      0.00 kcal/mol
Rotational entropy                ...      0.00499734 Eh      3.14 kcal/mol
Translational entropy             ...      0.01644380 Eh     10.32 kcal/mol
-----------------------------------------------------------------------
Final entropy term                ...      0.02144425 Eh     13.46 kcal/mol

In case the symmetry of your molecule has not been determined correctly
or in case you have a reason to use a different symmetry number we print
out the resulting rotational entropy values for sn=1,12:

 non-linear molecules -----------------------------------
|  sn= 1 | S(rot)=       0.00565179 Eh      3.55 kcal/mol|
|  sn= 2 | S(rot)=       0.00499734 Eh      3.14 kcal/mol|
|  sn= 3 | S(rot)=       0.00461450 Eh      2.90 kcal/mol|
|  sn= 4 | S(rot)=       0.00434288 Eh      2.73 kcal/mol|
|  sn= 5 | S(rot)=       0.00413219 Eh      2.59 kcal/mol|
|  sn= 6 | S(rot)=       0.00396005 Eh      2.48 kcal/mol|
|  sn= 7 | S(rot)=       0.00381450 Eh      2.39 kcal/mol|
|  sn= 8 | S(rot)=       0.00368842 Eh      2.31 kcal/mol|
|  sn= 9 | S(rot)=       0.00357722 Eh      2.24 kcal/mol|
|  sn=10 | S(rot)=       0.00347774 Eh      2.18 kcal/mol|
|  sn=11 | S(rot)=       0.00338775 Eh      2.13 kcal/mol|
|  sn=12 | S(rot)=       0.00330559 Eh      2.07 kcal/mol|
 linear molecules ---------------------------------------
|  Dinfh | S(rot)=       0.00321546 Eh      2.02 kcal/mol|
|  Cinfv | S(rot)=       0.00386992 Eh      2.43 kcal/mol|
 --------------------------------------------------------

-------------------
GIBBS FREE ENERGY
-------------------

The Gibbs free energy is G = H - T*S

Total enthalpy                    ...    -76.29660210 Eh
Total entropy correction          ...     -0.02144425 Eh    -13.46 kcal/mol
-----------------------------------------------------------------------
Final Gibbs free energy         ...    -76.31804635 Eh

For completeness - the Gibbs free energy minus the electronic energy
G-E(el)                           ...      0.00353663 Eh      2.22 kcal/mol

                             ****ORCA TERMINATED NORMALLY****
TOTAL RUN TIME: 0 days 0 hours 0 minutes 11 seconds 986 msec
