                         Program Version 6.0.0  -   RELEASE  -
|  1> # ORCA Input File generated by Ophysia
|  2> ! B3LYP D4 def2-SVP OPT RIJCOSX FREQ def2/J TIGHTOPT
|  3> * xyz 1 1
|  4> C          1.15423        0.29612        0.01043
|  5> H          2.17484       -0.05694       -0.06448
|  6> H          0.64391        0.66708       -0.86927
|  7> H          0.64387        0.27798        0.96496
|  8> **                         ****END OF INPUT****
 Total Charge           Charge          ....    1
 Multiplicity           Mult            ....    1
 Number of Electrons    NEL             ....    8
Dispersion correction           -0.000481426
FINAL SINGLE POINT ENERGY       -39.417532263694
Dispersion correction             ... done (  0.0 sec)
Dispersion correction           -0.000481346
FINAL SINGLE POINT ENERGY       -39.418508216218
Dispersion correction             ... done (  0.0 sec)
Dispersion correction           -0.000481345
FINAL SINGLE POINT ENERGY       -39.418508168816
Dispersion correction             ... done (  0.0 sec)
Dispersion correction           -0.000481345
FINAL SINGLE POINT ENERGY       -39.418508288862
Dispersion correction             ... done (  0.0 sec)
                    ***********************HURRAY********************

CARTESIAN COORDINATES (ANGSTROEM)
---------------------------------
  C      1.154211    0.296057    0.010406
  H      2.196003   -0.064243   -0.065991
  H      0.633311    0.674803   -0.887498
  H      0.633325    0.277624    0.984723

 Multiplicity           Mult            ....    1
 Number of Electrons    NEL             ....    8
 Basis Dimension        Dim             ....   29

ORBITAL ENERGIES
----------------

  NO   OCC          E(Eh)            E(eV)
   0   2.0000     -10.652857      -289.8790
   1   2.0000      -1.032331       -28.0912
   2   2.0000      -0.780066       -21.2267
   3   2.0000      -0.780060       -21.2265
   4   0.0000      -0.484099       -13.1730
   5   0.0000      -0.188354        -5.1254
   6   0.0000      -0.133962        -3.6453
   7   0.0000      -0.133957        -3.6451
   8   0.0000       0.135252         3.6804

MULLIKEN ATOMIC CHARGES
-----------------------
   0 C :    0.299485
   1 H :    0.233519
   2 H :    0.233541
   3 H :    0.233455
Sum of atomic charges:    1.0000000

LOEWDIN ATOMIC CHARGES
----------------------
   0 C :    0.647076
   1 H :    0.117642
   2 H :    0.117646
   3 H :    0.117635

  Mayer bond orders larger than 0.100000
B(  0-C ,  1-H ) :   0.9353 B(  0-C ,  2-H ) :   0.9353 B(  0-C ,  3-H ) :   0.9354

Dispersion correction           -0.000481345
FINAL SINGLE POINT ENERGY       -39.418508292383

DIPOLE MOMENT
-------------

Method             : SCF
Type of density    : Electron Density
Multiplicity       :   1
Irrep              :   0
Energy             :   -39.4180269472834723 Eh
Relativity type    :
Basis              : AO
                                X                 Y                 Z
Electronic contribution:     -0.000043460      -0.000058089       0.000109333
Nuclear contribution   :      0.000005596       0.000010485       0.000011622
                        -----------------------------------------
Total Dipole Moment    :     -0.000037864      -0.000047605       0.000120954
                        -----------------------------------------
Magnitude (a.u.)       :      0.000135387
Magnitude (Debye)      :      0.000344128

VIBRATIONAL FREQUENCIES
-----------------------

Scaling factor for frequencies =  1.000000000  (already applied!)

     0:       0.00 cm**-1
     1:       0.00 cm**-1
     2:       0.00 cm**-1
     3:       0.00 cm**-1
     4:       0.00 cm**-1
     5:       0.00 cm**-1
     6:    1374.74 cm**-1
     7:    1374.81 cm**-1
     8:    1392.65 cm**-1
     9:    3013.92 cm**-1
    10:    3227.00 cm**-1
    11:    3227.08 cm**-1

IR SPECTRUM
-----------

 Mode   freq       eps      Int      T**2         TX        TY        TZ
       cm**-1   L/(mol*cm) km/mol    a.u.
----------------------------------------------------------------------------
  6:   1374.74   0.004336   21.91  0.000984  ( 0.018700 -0.001424 -0.025152)
  7:   1374.81   0.004332   21.89  0.000983  (-0.022924  0.012054 -0.017675)
  8:   1392.65   0.001596    8.07  0.000358  ( 0.006362  0.017418  0.003708)
  9:   3013.92   0.000000    0.00  0.000000  (-0.000033  0.000005  0.000046)
 10:   3227.00   0.019557   98.83  0.001891  (-0.034131  0.016811 -0.021064)
 11:   3227.08   0.019571   98.90  0.001893  (-0.022705  0.000344  0.037107)

--------------------------
THERMOCHEMISTRY AT 298.15K
--------------------------

Temperature         ...   298.15 K
Pressure            ...     1.00 atm
Total Mass          ...    15.03 AMU
Quasi RRHO          ...     True
Cut-Off Frequency   ...     1.00 cm^-1

Throughout the following assumptions are being made:
  (1) The electronic state is orbitally nondegenerate
  (2) There are no thermally accessible electronically excited states
  (3) Hindered rotations indicated by low frequency modes are not
      treated as such but are treated as vibrations and this may
      cause some error
  (4) All equations used are the standard statistical mechanics
      equations for an ideal gas
  (5) All vibrations are strictly harmonic

freq.    1374.74  E(vib)   ...       0.01
freq.    1374.81  E(vib)   ...       0.01
freq.    1392.65  E(vib)   ...       0.00
freq.    3013.92  E(vib)   ...       0.00
freq.    3227.00  E(vib)   ...       0.00
freq.    3227.08  E(vib)   ...       0.00

------------
INNER ENERGY
------------

The inner energy is: U= E(el) + E(ZPE) + E(vib) + E(rot) + E(trans)
    E(el)   - is the total energy from the electronic structure calculation
              = E(kin-el) + E(nuc-el) + E(el-el) + E(nuc-nuc)
    E(ZPE)  - the the zero temperature vibrational energy from the frequency calculation
    E(vib)  - the the finite temperature correction to E(ZPE) due to population
              of excited vibrational states
    E(rot)  - is the rotational thermal energy
    E(trans)- is the translational thermal energy

Summary of contributions to the inner energy U:
Electronic energy                ...    -39.41850829 Eh
Zero point energy                ...      0.03100633 Eh      19.46 kcal/mol
Thermal vibrational correction   ...      0.00002417 Eh       0.02 kcal/mol
Thermal rotational correction    ...      0.00141627 Eh       0.89 kcal/mol
Thermal translational correction ...      0.00141627 Eh       0.89 kcal/mol
-----------------------------------------------------------------------
Total thermal energy                    -39.38464526 Eh

Summary of corrections to the electronic energy:
(perhaps to be used in another calculation)
Total thermal correction                  0.00285671 Eh       1.79 kcal/mol
Non-thermal (ZPE) correction              0.03100633 Eh      19.46 kcal/mol
-----------------------------------------------------------------------
Total correction                          0.03386304 Eh      21.25 kcal/mol

--------
ENTHALPY
--------

The enthalpy is H = U + kB*T
                kB is Boltzmann's constant
Total thermal energy              ...    -39.38464526 Eh
Thermal Enthalpy correction       ...      0.00094421 Eh       0.59 kcal/mol
-----------------------------------------------------------------------
Total Enthalpy                    ...    -39.38370105 Eh

Note: Rotational entropy computed according to Herzberg
Infrared and Raman Spectra, Chapter V,1, Van Nostrand Reinhold, 1945
Point Group:  D3h, Symmetry Number:   6
Rotational constants in cm-1:     9.131678     9.131013     4.565673

Vibrational entropy computed according to the QRRHO of S. Grimme
Chem.Eur.J. 2012 18 9955 using a reference frequency of 100.0 cm-1

-------
ENTROPY
-------

The entropy contributions are T*S = T*(S(el)+S(vib)+S(rot)+S(trans))
     S(el)   - electronic entropy
     S(vib)  - vibrational entropy
     S(rot)  - rotational entropy
     S(trans)- translational entropy
The entropies will be listed as multiplied by the temperature to get
units of energy

Electronic entropy                ...      0.00000000 Eh      0.00 kcal/mol
Vibrational entropy               ...      0.00002780 Eh      0.02 kcal/mol
Rotational entropy                ...      0.00501391 Eh      3.15 kcal/mol
Translational entropy             ...      0.01618771 Eh     10.16 kcal/mol
-----------------------------------------------------------------------
Final entropy term                ...      0.02122941 Eh     13.32 kcal/mol

In case the symmetry of your molecule has not been determined correctly
or in case you have a reason to use a different symmetry number we print
out the resulting rotational entropy values for sn=1,12:

 non-linear molecules -----------------------------------
|  sn= 1 | S(rot)=       0.00670565 Eh      4.21 kcal/mol|
|  sn= 2 | S(rot)=       0.00605120 Eh      3.80 kcal/mol|
|  sn= 3 | S(rot)=       0.00566836 Eh      3.56 kcal/mol|
|  sn= 4 | S(rot)=       0.00539674 Eh      3.39 kcal/mol|
|  sn= 5 | S(rot)=       0.00518605 Eh      3.25 kcal/mol|
|  sn= 6 | S(rot)=       0.00501391 Eh      3.15 kcal/mol|
|  sn= 7 | S(rot)=       0.00486836 Eh      3.05 kcal/mol|
|  sn= 8 | S(rot)=       0.00474228 Eh      2.98 kcal/mol|
|  sn= 9 | S(rot)=       0.00463107 Eh      2.91 kcal/mol|
|  sn=10 | S(rot)=       0.00453160 Eh      2.84 kcal/mol|
|  sn=11 | S(rot)=       0.00444161 Eh      2.79 kcal/mol|
|  sn=12 | S(rot)=       0.00435945 Eh      2.74 kcal/mol|
 linear molecules ---------------------------------------
|  Dinfh | S(rot)=       0.00389201 Eh      2.44 kcal/mol|
|  Cinfv | S(rot)=       0.00454646 Eh      2.85 kcal/mol|
 --------------------------------------------------------

-------------------
GIBBS FREE ENERGY
-------------------

The Gibbs free energy is G = H - T*S

Total enthalpy                    ...    -39.38370105 Eh
Total entropy correction          ...     -0.02122941 Eh    -13.32 kcal/mol
-----------------------------------------------------------------------
Final Gibbs free energy         ...    -39.40493046 Eh

For completeness - the Gibbs free energy minus the electronic energy
G-E(el)                           ...      0.01357783 Eh      8.52 kcal/mol

                             ****ORCA TERMINATED NORMALLY****
TOTAL RUN TIME: 0 days 0 hours 0 minutes 14 seconds 574 msec
