                         Program Version 6.0.0  -   RELEASE  -
|  1> # ORCA Input File generated by Ophysia
|  2> ! B3LYP D4 def2-SVP OPT RIJCOSX FREQ def2/J TIGHTOPT
|  3> * xyz 0 1
|  4> C          1.07187        0.01568       -0.07236
|  5> C          2.58616        0.00870       -0.07427
|  6> O          3.06784       -0.87984       -1.07155
|  7> H          0.68707        0.70422        0.68504
|  8> H          0.67987       -0.98631        0.13073
|  9> H          0.68639        0.31613       -1.05224
| 10> H          2.97758       -0.30804        0.89734
| 11> H          2.97315        1.00826       -0.29269
| 12> H          2.72826       -1.76681       -0.86302
| 13> **                         ****END OF INPUT****
 Total Charge           Charge          ....    0
 Multiplicity           Mult            ....    1
 Number of Electrons    NEL             ....   26
Dispersion correction           -0.005905181
FINAL SINGLE POINT ENERGY      -154.832917027599
Dispersion correction             ... done (  0.0 sec)
Dispersion correction           -0.005878088
FINAL SINGLE POINT ENERGY      -154.834147101603
Dispersion correction             ... done (  0.0 sec)
Dispersion correction           -0.005872244
FINAL SINGLE POINT ENERGY      -154.834296115611
Dispersion correction             ... done (  0.0 sec)
FINAL SINGLE POINT ENERGY      -154.834317718490
Dispersion correction             ... done (  0.0 sec)
Dispersion correction           -0.005872583
FINAL SINGLE POINT ENERGY      -154.834321347769
Dispersion correction             ... done (  0.0 sec)
Dispersion correction           -0.005872719
FINAL SINGLE POINT ENERGY      -154.834321893119
Dispersion correction             ... done (  0.0 sec)
                    ***********************HURRAY********************

CARTESIAN COORDINATES (ANGSTROEM)
---------------------------------
  C      1.057234    0.018353   -0.067945
  C      2.580889   -0.022655   -0.082625
  O      3.100230   -0.871101   -1.086264
  H      0.683561    0.732798    0.684427
  H      0.635702   -0.972544    0.178014
  H      0.669663    0.315467   -1.055534
  H      2.960046   -0.301603    0.923437
  H      2.981384    0.982093   -0.298509
  H      2.789481   -1.768817   -0.908021

 Multiplicity           Mult            ....    1
 Number of Electrons    NEL             ....   26
 Basis Dimension        Dim             ....   72

ORBITAL ENERGIES
----------------

  NO   OCC          E(Eh)            E(eV)
   0   2.0000     -19.119408      -520.2655
   1   2.0000     -10.226405      -278.2746
   2   2.0000     -10.179007      -276.9848
   3   2.0000      -0.998235       -27.1634
   4   2.0000      -0.733471       -19.9588
   5   2.0000      -0.612190       -16.6585
   6   2.0000      -0.496202       -13.5024
   7   2.0000      -0.446985       -12.1631
   8   2.0000      -0.426850       -11.6152
   9   2.0000      -0.376997       -10.2586
  10   2.0000      -0.365989        -9.9591
  11   2.0000      -0.317194        -8.6313
  12   2.0000      -0.264396        -7.1946
  13   0.0000       0.051679         1.4063
  14   0.0000       0.090979         2.4757
  15   0.0000       0.108961         2.9650
  16   0.0000       0.121163         3.2970
  17   0.0000       0.136124         3.7041

MULLIKEN ATOMIC CHARGES
-----------------------
   0 C :   -0.039132
   1 C :    0.172035
   2 O :   -0.322172
   3 H :    0.009790
   4 H :    0.003291
   5 H :    0.022752
   6 H :   -0.009973
   7 H :    0.006319
   8 H :    0.157091
Sum of atomic charges:   -0.0000000

LOEWDIN ATOMIC CHARGES
----------------------
   0 C :   -0.078984
   1 C :    0.066115
   2 O :   -0.146399
   3 H :    0.026785
   4 H :    0.017289
   5 H :    0.025481
   6 H :    0.000174
   7 H :    0.017986
   8 H :    0.071553

  Mayer bond orders larger than 0.100000
B(  0-C ,  1-C ) :   1.0983 B(  0-C ,  3-H ) :   0.9558 B(  0-C ,  4-H ) :   0.9683
B(  0-C ,  5-H ) :   0.9678 B(  1-C ,  2-O ) :   1.0367 B(  1-C ,  6-H ) :   0.9496
B(  1-C ,  7-H ) :   0.9518 B(  2-O ,  8-H ) :   0.9858

Dispersion correction           -0.005872654
FINAL SINGLE POINT ENERGY      -154.834321956751

DIPOLE MOMENT
-------------

Method             : SCF
Type of density    : Electron Density
Multiplicity       :   1
Irrep              :   0
Energy             :  -154.8284493030943736 Eh
Relativity type    :
Basis              : AO
                                X                 Y                 Z
Electronic contribution:      2.266302942      -1.087008311      -1.502298770
Nuclear contribution   :     -2.650645505       0.875858465       1.946643755
                        -----------------------------------------
Total Dipole Moment    :     -0.384342563      -0.211149846       0.444344984
                        -----------------------------------------
Magnitude (a.u.)       :      0.624296347
Magnitude (Debye)      :      1.586835206

VIBRATIONAL FREQUENCIES
-----------------------

Scaling factor for frequencies =  1.000000000  (already applied!)

     0:       0.00 cm**-1
     1:       0.00 cm**-1
     2:       0.00 cm**-1
     3:       0.00 cm**-1
     4:       0.00 cm**-1
     5:       0.00 cm**-1
     6:     275.72 cm**-1
     7:     313.99 cm**-1
     8:     426.14 cm**-1
     9:     804.86 cm**-1
    10:     896.79 cm**-1
    11:    1061.93 cm**-1
    12:    1096.00 cm**-1
    13:    1142.55 cm**-1
    14:    1271.83 cm**-1
    15:    1371.67 cm**-1
    16:    1385.40 cm**-1
    17:    1417.41 cm**-1
    18:    1460.22 cm**-1
    19:    1467.76 cm**-1
    20:    1497.43 cm**-1
    21:    2963.35 cm**-1
    22:    3016.78 cm**-1
    23:    3067.36 cm**-1
    24:    3096.50 cm**-1
    25:    3116.42 cm**-1
    26:    3802.79 cm**-1

IR SPECTRUM
-----------

 Mode   freq       eps      Int      T**2         TX        TY        TZ
       cm**-1   L/(mol*cm) km/mol    a.u.
----------------------------------------------------------------------------
  6:    275.72   0.001092    5.52  0.001236  ( 0.026674  0.002276  0.022791)
  7:    313.99   0.022143  111.90  0.022007  ( 0.123526 -0.045079  0.068674)
  8:    426.14   0.003914   19.78  0.002866  ( 0.046214 -0.001795  0.026967)
  9:    804.86   0.000508    2.57  0.000197  (-0.002095  0.000657 -0.013857)
 10:    896.79   0.001436    7.26  0.000500  ( 0.007857 -0.012865 -0.016507)
 11:   1061.93   0.003060   15.47  0.000899  ( 0.000437  0.019788  0.022529)
 12:   1096.00   0.019777   99.94  0.005631  (-0.041004  0.044119  0.044758)
 13:   1142.55   0.004434   22.41  0.001211  (-0.006546  0.016446  0.029963)
 14:   1271.83   0.002446   12.36  0.000600  ( 0.012767 -0.010546 -0.018053)
 15:   1371.67   0.000295    1.49  0.000067  (-0.003002 -0.001656  0.007445)
 16:   1385.40   0.001347    6.81  0.000304  ( 0.002165 -0.008306 -0.015160)
 17:   1417.41   0.010253   51.82  0.002257  ( 0.033160 -0.021577 -0.026312)
 18:   1460.22   0.001556    7.86  0.000333  ( 0.005094 -0.016955  0.004371)
 19:   1467.76   0.000250    1.26  0.000053  (-0.001268 -0.005609 -0.004481)
 20:   1497.43   0.000093    0.47  0.000019  ( 0.003961 -0.001304 -0.001401)
 21:   2963.35   0.015820   79.95  0.001666  ( 0.018909  0.003186  0.036032)
 22:   3016.78   0.003075   15.54  0.000318  (-0.016850 -0.004731  0.003438)
 23:   3067.36   0.002931   14.81  0.000298  (-0.009005 -0.013620  0.005621)
 24:   3096.50   0.009270   46.85  0.000934  (-0.001526 -0.030505  0.001175)
 25:   3116.42   0.005024   25.39  0.000503  (-0.001143  0.002121 -0.022300)
 26:   3802.79   0.003818   19.30  0.000313  ( 0.001520  0.017622  0.000707)

--------------------------
THERMOCHEMISTRY AT 298.15K
--------------------------

Temperature         ...   298.15 K
Pressure            ...     1.00 atm
Total Mass          ...    46.07 AMU
Quasi RRHO          ...     True
Cut-Off Frequency   ...     1.00 cm^-1

Throughout the following assumptions are being made:
  (1) The electronic state is orbitally nondegenerate
  (2) There are no thermally accessible electronically excited states
  (3) Hindered rotations indicated by low frequency modes are not
      treated as such but are treated as vibrations and this may
      cause some error
  (4) All equations used are the standard statistical mechanics
      equations for an ideal gas
  (5) All vibrations are strictly harmonic

freq.     275.72  E(vib)   ...       0.28
freq.     313.99  E(vib)   ...       0.25
freq.     426.14  E(vib)   ...       0.18
freq.     804.86  E(vib)   ...       0.05
freq.     896.79  E(vib)   ...       0.03
freq.    1061.93  E(vib)   ...       0.02
freq.    1096.00  E(vib)   ...       0.02
freq.    1142.55  E(vib)   ...       0.01
freq.    1271.83  E(vib)   ...       0.01
freq.    1371.67  E(vib)   ...       0.01
freq.    1385.40  E(vib)   ...       0.00
freq.    1417.41  E(vib)   ...       0.00
freq.    1460.22  E(vib)   ...       0.00
freq.    1467.76  E(vib)   ...       0.00
freq.    1497.43  E(vib)   ...       0.00
freq.    2963.35  E(vib)   ...       0.00
freq.    3016.78  E(vib)   ...       0.00
freq.    3067.36  E(vib)   ...       0.00
freq.    3096.50  E(vib)   ...       0.00
freq.    3116.42  E(vib)   ...       0.00
freq.    3802.79  E(vib)   ...       0.00

------------
INNER ENERGY
------------

The inner energy is: U= E(el) + E(ZPE) + E(vib) + E(rot) + E(trans)
    E(el)   - is the total energy from the electronic structure calculation
              = E(kin-el) + E(nuc-el) + E(el-el) + E(nuc-nuc)
    E(ZPE)  - the the zero temperature vibrational energy from the frequency calculation
    E(vib)  - the the finite temperature correction to E(ZPE) due to population
              of excited vibrational states
    E(rot)  - is the rotational thermal energy
    E(trans)- is the translational thermal energy

Summary of contributions to the inner energy U:
Electronic energy                ...   -154.83432196 Eh
Zero point energy                ...      0.07962857 Eh      49.97 kcal/mol
Thermal vibrational correction   ...      0.00139837 Eh       0.88 kcal/mol
Thermal rotational correction    ...      0.00141627 Eh       0.89 kcal/mol
Thermal translational correction ...      0.00141627 Eh       0.89 kcal/mol
-----------------------------------------------------------------------
Total thermal energy                   -154.75046247 Eh

Summary of corrections to the electronic energy:
(perhaps to be used in another calculation)
Total thermal correction                  0.00423091 Eh       2.65 kcal/mol
Non-thermal (ZPE) correction              0.07962857 Eh      49.97 kcal/mol
-----------------------------------------------------------------------
Total correction                          0.08385948 Eh      52.62 kcal/mol

--------
ENTHALPY
--------

The enthalpy is H = U + kB*T
                kB is Boltzmann's constant
Total thermal energy              ...   -154.75046247 Eh
Thermal Enthalpy correction       ...      0.00094421 Eh       0.59 kcal/mol
-----------------------------------------------------------------------
Total Enthalpy                    ...   -154.74951826 Eh

Note: Only C1 symmetry has been detected, increase convergence thresholds
      if your molecule has a higher symmetry. Symmetry factor of 1.0 is
      used for the rotational entropy correction.

Note: Rotational entropy computed according to Herzberg
Infrared and Raman Spectra, Chapter V,1, Van Nostrand Reinhold, 1945
Point Group:  C1, Symmetry Number:   1
Rotational constants in cm-1:     1.144018     0.306263     0.270731

Vibrational entropy computed according to the QRRHO of S. Grimme
Chem.Eur.J. 2012 18 9955 using a reference frequency of 100.0 cm-1

-------
ENTROPY
-------

The entropy contributions are T*S = T*(S(el)+S(vib)+S(rot)+S(trans))
     S(el)   - electronic entropy
     S(vib)  - vibrational entropy
     S(rot)  - rotational entropy
     S(trans)- translational entropy
The entropies will be listed as multiplied by the temperature to get
units of energy

Electronic entropy                ...      0.00000000 Eh      0.00 kcal/mol
Vibrational entropy               ...      0.00211099 Eh      1.32 kcal/mol
Rotational entropy                ...      0.01062277 Eh      6.67 kcal/mol
Translational entropy             ...      0.01777359 Eh     11.15 kcal/mol
-----------------------------------------------------------------------
Final entropy term                ...      0.03050735 Eh     19.14 kcal/mol

In case the symmetry of your molecule has not been determined correctly
or in case you have a reason to use a different symmetry number we print
out the resulting rotational entropy values for sn=1,12:

 non-linear molecules -----------------------------------
|  sn= 1 | S(rot)=       0.01062277 Eh      6.67 kcal/mol|
|  sn= 2 | S(rot)=       0.00996831 Eh      6.26 kcal/mol|
|  sn= 3 | S(rot)=       0.00958548 Eh      6.01 kcal/mol|
|  sn= 4 | S(rot)=       0.00931386 Eh      5.84 kcal/mol|
|  sn= 5 | S(rot)=       0.00910317 Eh      5.71 kcal/mol|
|  sn= 6 | S(rot)=       0.00893102 Eh      5.60 kcal/mol|
|  sn= 7 | S(rot)=       0.00878548 Eh      5.51 kcal/mol|
|  sn= 8 | S(rot)=       0.00865940 Eh      5.43 kcal/mol|
|  sn= 9 | S(rot)=       0.00854819 Eh      5.36 kcal/mol|
|  sn=10 | S(rot)=       0.00844871 Eh      5.30 kcal/mol|
|  sn=11 | S(rot)=       0.00835872 Eh      5.25 kcal/mol|
|  sn=12 | S(rot)=       0.00827657 Eh      5.19 kcal/mol|
 linear molecules ---------------------------------------
|  Dinfh | S(rot)=       0.00655950 Eh      4.12 kcal/mol|
|  Cinfv | S(rot)=       0.00721396 Eh      4.53 kcal/mol|
 --------------------------------------------------------

-------------------
GIBBS FREE ENERGY
-------------------

The Gibbs free energy is G = H - T*S

Total enthalpy                    ...   -154.74951826 Eh
Total entropy correction          ...     -0.03050735 Eh    -19.14 kcal/mol
-----------------------------------------------------------------------
Final Gibbs free energy         ...   -154.78002562 Eh

For completeness - the Gibbs free energy minus the electronic energy
G-E(el)                           ...      0.05429634 Eh     34.07 kcal/mol

                             ****ORCA TERMINATED NORMALLY****
TOTAL RUN TIME: 0 days 0 hours 1 minutes 34 seconds 644 msec
